 Start File for LAMMPS Voronoi NA; S:202020 vN:3 g:0.000000 r:0.800000 asV:114.784 rand:1508901787 

 63936 atoms       

 1 atom types

 0.0  100.000000 xlo xhi
 0.0  100.000000 ylo yhi
 0.0  100.000000 zlo zhi

 Masses

 1  28.0855

 Atoms

 1	1	27.859375	43.967520	31.646414
 2	1	24.817521	42.793866	33.013770
 3	1	27.017173	40.542348	31.403739
 4	1	27.889555	41.930639	34.536086
 5	1	26.895906	42.308593	32.650002
 6	1	23.854052	41.134940	34.017358
 7	1	26.926086	40.271712	35.539675
 8	1	26.053704	38.883421	32.407328
 9	1	30.028846	43.752882	27.146711
 10	1	26.986993	42.579229	28.514067
 11	1	29.186644	40.327710	26.904037
 12	1	30.059026	41.716002	30.036383
 13	1	29.065377	42.093956	28.150300
 14	1	26.023524	40.920302	29.517656
 15	1	29.095557	40.057075	31.039972
 16	1	28.223175	38.668784	27.907625
 17	1	33.943083	46.314827	28.911702
 18	1	30.901229	45.141174	30.279058
 19	1	33.100880	42.889655	28.669027
 20	1	33.973263	44.277947	31.801374
 21	1	32.979614	44.655901	29.915290
 22	1	29.937760	43.482247	31.282646
 23	1	33.009794	42.619020	32.804963
 24	1	32.137411	41.230729	29.672616
 25	1	31.773611	46.529465	33.411405
 26	1	28.731757	45.355811	34.778761
 27	1	30.931409	43.104293	33.168730
 28	1	31.803791	44.492584	36.301077
 29	1	30.810142	44.870538	34.414993
 30	1	27.768288	43.696885	35.782349
 31	1	30.840322	42.833657	37.304665
 32	1	29.967940	41.445366	34.172319
 33	1	29.604140	46.744103	37.911108
 34	1	26.562286	45.570449	39.278464
 35	1	28.761938	43.318930	37.668433
 36	1	29.634320	44.707222	40.800780
 37	1	28.640671	45.085176	38.914696
 38	1	25.598817	43.911522	40.282052
 39	1	28.670851	43.048295	41.804368
 40	1	27.798469	41.660004	38.672021
 41	1	25.689904	44.182158	36.146117
 42	1	22.648050	43.008504	37.513473
 43	1	24.847701	40.756985	35.903442
 44	1	25.720084	42.145277	39.035789
 45	1	24.726435	42.523231	37.149705
 46	1	21.684581	41.349577	38.517061
 47	1	24.756615	40.486350	40.039377
 48	1	23.884232	39.098059	36.907031
 49	1	21.775667	41.620213	34.381126
 50	1	18.733814	40.446559	35.748482
 51	1	20.933465	38.195040	34.138451
 52	1	21.805847	39.583332	37.270798
 53	1	20.812198	39.961286	35.384714
 54	1	17.770345	38.787632	36.752070
 55	1	20.842378	37.924405	38.274387
 56	1	19.969996	36.536114	35.142040
 57	1	23.945139	41.405575	29.881423
 58	1	20.903285	40.231921	31.248779
 59	1	23.102936	37.980403	29.638749
 60	1	23.975319	39.368694	32.771095
 61	1	22.981670	39.746648	30.885012
 62	1	19.939816	38.572995	32.252368
 63	1	23.011850	37.709767	33.774684
 64	1	22.139467	36.321476	30.642337
 65	1	26.114610	41.190937	25.381720
 66	1	23.072756	40.017284	26.749076
 67	1	25.272408	37.765765	25.139046
 68	1	26.144790	39.154057	28.271393
 69	1	25.151141	39.532011	26.385309
 70	1	22.109287	38.358357	27.752665
 71	1	25.181321	37.495130	29.274981
 72	1	24.308939	36.106839	26.142634
 73	1	28.284081	40.976300	20.882018
 74	1	25.242228	39.802646	22.249374
 75	1	27.441879	37.551128	20.639343
 76	1	28.314262	38.939419	23.771690
 77	1	27.320612	39.317373	21.885606
 78	1	24.278759	38.143720	23.252962
 79	1	27.350793	37.280492	24.775278
 80	1	26.478410	35.892201	21.642932
 81	1	32.198318	43.538245	22.647009
 82	1	29.156464	42.364591	24.014364
 83	1	31.356115	40.113073	22.404334
 84	1	32.228498	41.501364	25.536681
 85	1	31.234849	41.879318	23.650597
 86	1	28.192995	40.705665	25.017953
 87	1	31.265029	39.842437	26.540269
 88	1	30.392646	38.454146	23.407922
 89	1	36.112554	46.100190	24.411999
 90	1	33.070700	44.926536	25.779355
 91	1	35.270352	42.675018	24.169325
 92	1	36.142734	44.063309	27.301671
 93	1	35.149085	44.441263	25.415588
 94	1	32.107231	43.267610	26.782944
 95	1	35.179265	42.404382	28.305260
 96	1	34.306883	41.016091	25.172913
 97	1	40.026790	48.662135	26.176990
 98	1	36.984936	47.488481	27.544346
 99	1	39.184588	45.236963	25.934316
 100	1	40.056970	46.625254	29.066662
 101	1	39.063321	47.003208	27.180578
 102	1	36.021467	45.829554	28.547934
 103	1	39.093501	44.966327	30.070251
 104	1	38.221119	43.578036	26.937904
 105	1	37.857319	48.876772	30.676693
 106	1	34.815465	47.703119	32.044049
 107	1	37.015116	45.451600	30.434018
 108	1	37.887499	46.839892	33.566365
 109	1	36.893850	47.217846	31.680281
 110	1	33.851996	46.044192	33.047637
 111	1	36.924030	45.180965	34.569953
 112	1	36.051647	43.792674	31.437607
 113	1	35.687848	49.091410	35.176396
 114	1	32.645994	47.917756	36.543752
 115	1	34.845645	45.666238	34.933721
 116	1	35.718028	47.054529	38.066068
 117	1	34.724378	47.432483	36.179984
 118	1	31.682525	46.258830	37.547340
 119	1	34.754559	45.395602	39.069656
 120	1	33.882176	44.007311	35.937309
 121	1	33.518376	49.306047	39.676098
 122	1	30.476522	48.132394	41.043454
 123	1	32.676174	45.880875	39.433424
 124	1	33.548556	47.269167	42.565771
 125	1	32.554907	47.647121	40.679687
 126	1	29.513053	46.473467	42.047043
 127	1	32.585087	45.610240	43.569359
 128	1	31.712705	44.221949	40.437012
 129	1	31.348905	49.520685	44.175801
 130	1	28.307051	48.347031	45.543157
 131	1	30.506702	46.095513	43.933126
 132	1	31.379085	47.483804	47.065473
 133	1	30.385436	47.861758	45.179389
 134	1	27.343582	46.688105	46.546745
 135	1	30.415616	45.824877	48.069062
 136	1	29.543233	44.436586	44.936715
 137	1	27.434669	46.958740	42.410810
 138	1	24.392815	45.785086	43.778166
 139	1	26.592466	43.533568	42.168136
 140	1	27.464849	44.921859	45.300482
 141	1	26.471200	45.299813	43.414399
 142	1	23.429346	44.126160	44.781755
 143	1	26.501380	43.262932	46.304071
 144	1	25.628997	41.874641	43.171724
 145	1	23.520432	44.396795	40.645819
 146	1	20.478578	43.223141	42.013175
 147	1	22.678230	40.971623	40.403145
 148	1	23.550612	42.359914	43.535492
 149	1	22.556963	42.737868	41.649408
 150	1	19.515109	41.564215	43.016764
 151	1	22.587143	40.700987	44.539080
 152	1	21.714761	39.312696	41.406733
 153	1	19.606196	41.834850	38.880829
 154	1	16.564342	40.661196	40.248185
 155	1	18.763994	38.409678	38.638154
 156	1	19.636376	39.797969	41.770501
 157	1	18.642727	40.175923	39.884417
 158	1	15.600873	39.002270	41.251773
 159	1	18.672907	38.139043	42.774089
 160	1	17.800525	36.750751	39.641743
 161	1	15.691960	39.272905	37.115838
 162	1	12.650106	38.099251	38.483194
 163	1	14.849757	35.847733	36.873163
 164	1	15.722140	37.236024	40.005510
 165	1	14.728491	37.613978	38.119426
 166	1	11.686637	36.440325	39.486782
 167	1	14.758671	35.577098	41.009099
 168	1	13.886288	34.188806	37.876752
 169	1	17.861431	39.058268	32.616135
 170	1	14.819577	37.884614	33.983491
 171	1	17.019229	35.633095	32.373461
 172	1	17.891611	37.021387	35.505807
 173	1	16.897962	37.399341	33.619724
 174	1	13.856108	36.225687	34.987080
 175	1	16.928142	35.362460	36.509396
 176	1	16.055760	33.974169	33.377049
 177	1	20.030902	38.843630	28.116432
 178	1	16.989049	37.669976	29.483788
 179	1	19.188700	35.418458	27.873758
 180	1	20.061083	36.806749	31.006105
 181	1	19.067433	37.184703	29.120021
 182	1	16.025580	36.011050	30.487377
 183	1	19.097614	35.147822	32.009693
 184	1	18.225231	33.759531	28.877346
 185	1	22.200374	38.628993	23.616730
 186	1	19.158520	37.455339	24.984086
 187	1	21.358171	35.203820	23.374055
 188	1	22.230554	36.592112	26.506402
 189	1	21.236905	36.970066	24.620318
 190	1	18.195051	35.796412	25.987674
 191	1	21.267085	34.933185	27.509990
 192	1	20.394702	33.544894	24.377644
 193	1	24.369845	38.414355	19.117027
 194	1	21.327991	37.240701	20.484383
 195	1	23.527643	34.989183	18.874352
 196	1	24.400025	36.377474	22.006699
 197	1	23.406376	36.755428	20.120615
 198	1	20.364522	35.581775	21.487971
 199	1	23.436556	34.718547	23.010288
 200	1	22.564174	33.330256	19.877941
 201	1	26.539317	38.199717	14.617324
 202	1	23.497463	37.026064	15.984680
 203	1	25.697114	34.774545	14.374650
 204	1	26.569497	36.162837	17.506996
 205	1	25.575848	36.540791	15.620913
 206	1	22.533994	35.367137	16.988269
 207	1	25.606028	34.503910	18.510585
 208	1	24.733645	33.115619	15.378238
 209	1	30.453553	40.761662	16.382315
 210	1	27.411699	39.588009	17.749671
 211	1	29.611350	37.336490	16.139640
 212	1	30.483733	38.724782	19.271987
 213	1	29.490084	39.102736	17.385903
 214	1	26.448230	37.929082	18.753259
 215	1	29.520264	37.065855	20.275576
 216	1	28.647881	35.677564	17.143229
 217	1	34.367789	43.323607	18.147306
 218	1	31.325935	42.149954	19.514662
 219	1	33.525587	39.898435	17.904631
 220	1	34.397969	41.286727	21.036978
 221	1	33.404320	41.664681	19.150894
 222	1	30.362466	40.491027	20.518250
 223	1	33.434500	39.627800	22.040566
 224	1	32.562118	38.239509	18.908220
 225	1	38.282025	45.885552	19.912297
 226	1	35.240172	44.711899	21.279653
 227	1	37.439823	42.460380	19.669622
 228	1	38.312205	43.848671	22.801969
 229	1	37.318556	44.226626	20.915885
 230	1	34.276702	43.052972	22.283241
 231	1	37.348736	42.189745	23.805557
 232	1	36.476354	40.801454	20.673210
 233	1	42.196262	48.447497	21.677287
 234	1	39.154408	47.273844	23.044643
 235	1	41.354059	45.022325	21.434613
 236	1	42.226442	46.410616	24.566960
 237	1	41.232793	46.788571	22.680876
 238	1	38.190939	45.614917	24.048232
 239	1	41.262973	44.751690	25.570548
 240	1	40.390590	43.363399	22.438201
 241	1	46.110498	51.009442	23.442278
 242	1	43.068644	49.835789	24.809634
 243	1	45.268295	47.584270	23.199604
 244	1	46.140678	48.972561	26.331950
 245	1	45.147029	49.350516	24.445867
 246	1	42.105175	48.176862	25.813223
 247	1	45.177209	47.313635	27.335539
 248	1	44.304826	45.925344	24.203192
 249	1	43.941026	51.224080	27.941981
 250	1	40.899173	50.050426	29.309337
 251	1	43.098824	47.798908	27.699306
 252	1	43.971207	49.187199	30.831653
 253	1	42.977557	49.565153	28.945569
 254	1	39.935704	48.391499	30.312925
 255	1	43.007738	47.528272	31.835241
 256	1	42.135355	46.139981	28.702895
 257	1	41.771555	51.438717	32.441684
 258	1	38.729701	50.265064	33.809040
 259	1	40.929353	48.013545	32.199009
 260	1	41.801735	49.401837	35.331356
 261	1	40.808086	49.779791	33.445272
 262	1	37.766232	48.606137	34.812628
 263	1	40.838266	47.742910	36.334944
 264	1	39.965884	46.354619	33.202597
 265	1	39.602084	51.653355	36.941386
 266	1	36.560230	50.479701	38.308742
 267	1	38.759881	48.228183	36.698712
 268	1	39.632264	49.616474	39.831059
 269	1	38.638615	49.994428	37.944975
 270	1	35.596761	48.820775	39.312331
 271	1	38.668795	47.957547	40.834647
 272	1	37.796412	46.569256	37.702300
 273	1	37.432612	51.867992	41.441089
 274	1	34.390759	50.694339	42.808445
 275	1	36.590410	48.442820	41.198415
 276	1	37.462792	49.831112	44.330761
 277	1	36.469143	50.209066	42.444677
 278	1	33.427290	49.035412	43.812033
 279	1	36.499323	48.172185	45.334350
 280	1	35.626941	46.783894	42.202003
 281	1	35.263141	52.082630	45.940792
 282	1	32.221287	50.908976	47.308148
 283	1	34.420939	48.657458	45.698117
 284	1	35.293321	50.045749	48.830464
 285	1	34.299672	50.423703	46.944380
 286	1	31.257818	49.250050	48.311736
 287	1	34.329852	48.386822	49.834052
 288	1	33.457470	46.998531	46.701706
 289	1	33.093670	52.297268	50.440495
 290	1	30.051816	51.123614	51.807851
 291	1	32.251467	48.872095	50.197820
 292	1	33.123850	50.260387	53.330167
 293	1	32.130201	50.638341	51.444083
 294	1	29.088347	49.464687	52.811439
 295	1	32.160381	48.601460	54.333755
 296	1	31.287998	47.213169	51.201408
 297	1	29.179433	49.735323	48.675504
 298	1	26.137580	48.561669	50.042860
 299	1	28.337231	46.310150	48.432829
 300	1	29.209614	47.698442	51.565176
 301	1	28.215964	48.076396	49.679092
 302	1	25.174111	46.902742	51.046448
 303	1	28.246145	46.039515	52.568764
 304	1	27.373762	44.651224	49.436418
 305	1	25.265197	47.173378	46.910513
 306	1	22.223343	45.999724	48.277869
 307	1	24.422995	43.748205	46.667838
 308	1	25.295377	45.136497	49.800185
 309	1	24.301728	45.514451	47.914101
 310	1	21.259874	44.340797	49.281457
 311	1	24.331908	43.477570	50.803774
 312	1	23.459526	42.089279	47.671427
 313	1	21.350961	44.611433	45.145522
 314	1	18.309107	43.437779	46.512878
 315	1	20.508759	41.186260	44.902848
 316	1	21.381141	42.574552	48.035194
 317	1	20.387492	42.952506	46.149111
 318	1	17.345638	41.778852	47.516467
 319	1	20.417672	40.915625	49.038783
 320	1	19.545290	39.527334	45.906436
 321	1	17.436725	42.049488	43.380531
 322	1	14.394871	40.875834	44.747887
 323	1	16.594522	38.624315	43.137857
 324	1	17.466905	40.012607	46.270204
 325	1	16.473256	40.390561	44.384120
 326	1	13.431402	39.216907	45.751476
 327	1	16.503436	38.353680	47.273792
 328	1	15.631053	36.965389	44.141445
 329	1	13.522488	39.487543	41.615541
 330	1	10.480635	38.313889	42.982897
 331	1	12.680286	36.062370	41.372866
 332	1	13.552669	37.450662	44.505213
 333	1	12.559019	37.828616	42.619129
 334	1	9.517166	36.654962	43.986485
 335	1	12.589199	35.791735	45.508801
 336	1	11.716817	34.403444	42.376455
 337	1	9.608252	36.925598	39.850550
 338	1	6.566398	35.751944	41.217906
 339	1	8.766050	33.500426	39.607875
 340	1	9.638432	34.888717	42.740222
 341	1	8.644783	35.266671	40.854138
 342	1	5.602929	34.093017	42.221494
 343	1	8.674963	33.229790	43.743810
 344	1	7.802581	31.841499	40.611464
 345	1	11.777724	36.710960	35.350847
 346	1	8.735870	35.537306	36.718203
 347	1	10.935521	33.285788	35.108173
 348	1	11.807904	34.674079	38.240519
 349	1	10.814255	35.052033	36.354436
 350	1	7.772401	33.878380	37.721792
 351	1	10.844435	33.015153	39.244108
 352	1	9.972052	31.626861	36.111761
 353	1	13.947195	36.496323	30.851144
 354	1	10.905341	35.322669	32.218500
 355	1	13.104993	33.071150	30.608470
 356	1	13.977375	34.459442	33.740817
 357	1	12.983726	34.837396	31.854733
 358	1	9.941872	33.663742	33.222089
 359	1	13.013906	32.800515	34.744405
 360	1	12.141523	31.412224	31.612058
 361	1	16.116666	36.281685	26.351442
 362	1	13.074812	35.108031	27.718798
 363	1	15.274464	32.856513	26.108767
 364	1	16.146846	34.244804	29.241114
 365	1	15.153197	34.622758	27.355030
 366	1	12.111343	33.449105	28.722386
 367	1	15.183377	32.585877	30.244702
 368	1	14.310995	31.197586	27.112355
 369	1	18.286138	36.067048	21.851739
 370	1	15.244284	34.893394	23.219095
 371	1	17.443935	32.641875	21.609064
 372	1	18.316318	34.030167	24.741411
 373	1	17.322669	34.408121	22.855327
 374	1	14.280815	33.234467	24.222683
 375	1	17.352849	32.371240	25.745000
 376	1	16.480466	30.982949	22.612653
 377	1	20.455609	35.852410	17.352036
 378	1	17.413755	34.678756	18.719392
 379	1	19.613407	32.427238	17.109362
 380	1	20.485789	33.815529	20.241708
 381	1	19.492140	34.193483	18.355625
 382	1	16.450286	33.019830	19.722981
 383	1	19.522320	32.156602	21.245297
 384	1	18.649938	30.768311	18.112950
 385	1	22.625080	35.637772	12.852333
 386	1	19.583226	34.464119	14.219689
 387	1	21.782878	32.212600	12.609659
 388	1	22.655260	33.600892	15.742006
 389	1	21.661611	33.978846	13.855922
 390	1	18.619757	32.805192	15.223278
 391	1	21.691791	31.941965	16.745594
 392	1	20.819409	30.553674	13.613247
 393	1	24.794552	35.423135	8.352631
 394	1	21.752698	34.249481	9.719987
 395	1	23.952349	31.997963	8.109956
 396	1	24.824732	33.386254	11.242303
 397	1	23.831083	33.764208	9.356219
 398	1	20.789229	32.590555	10.723575
 399	1	23.861263	31.727327	12.245891
 400	1	22.988880	30.339036	9.113545
 401	1	28.708788	37.985080	10.117621
 402	1	25.666934	36.811426	11.484977
 403	1	27.866586	34.559908	9.874947
 404	1	28.738968	35.948199	13.007294
 405	1	27.745319	36.326153	11.121210
 406	1	24.703465	35.152500	12.488566
 407	1	27.775499	34.289272	14.010882
 408	1	26.903117	32.900981	10.878535
 409	1	32.623024	40.547025	11.882612
 410	1	29.581170	39.373371	13.249968
 411	1	31.780822	37.121853	11.639938
 412	1	32.653204	38.510144	14.772284
 413	1	31.659555	38.888098	12.886201
 414	1	28.617701	37.714444	14.253557
 415	1	31.689735	36.851217	15.775873
 416	1	30.817353	35.462926	12.643526
 417	1	36.537260	43.108970	13.647603
 418	1	33.495407	41.935316	15.014959
 419	1	35.695058	39.683798	13.404928
 420	1	36.567440	41.072089	16.537275
 421	1	35.573791	41.450043	14.651191
 422	1	32.531938	40.276389	16.018547
 423	1	35.603971	39.413162	17.540864
 424	1	34.731589	38.024871	14.408517
 425	1	40.451497	45.670915	15.412594
 426	1	37.409643	44.497261	16.779950
 427	1	39.609294	42.245743	15.169919
 428	1	40.481677	43.634034	18.302266
 429	1	39.488028	44.011988	16.416182
 430	1	36.446174	42.838334	17.783538
 431	1	39.518208	41.975107	19.305854
 432	1	38.645825	40.586816	16.173508
 433	1	44.365733	48.232860	17.177585
 434	1	41.323879	47.059206	18.544941
 435	1	43.523531	44.807688	16.934910
 436	1	44.395913	46.195979	20.067257
 437	1	43.402264	46.573933	18.181173
 438	1	40.360410	45.400279	19.548529
 439	1	43.432444	44.537052	21.070845
 440	1	42.560062	43.148761	17.938498
 441	1	48.279969	50.794805	18.942575
 442	1	45.238115	49.621151	20.309931
 443	1	47.437767	47.369633	18.699901
 444	1	48.310149	48.757924	21.832248
 445	1	47.316500	49.135878	19.946164
 446	1	44.274646	47.962224	21.313520
 447	1	47.346680	47.098997	22.835836
 448	1	46.474298	45.710706	19.703489
 449	1	52.194205	53.356750	20.707566
 450	1	49.152352	52.183096	22.074922
 451	1	51.352003	49.931578	20.464892
 452	1	52.224386	51.319869	23.597238
 453	1	51.230736	51.697823	21.711155
 454	1	48.188883	50.524169	23.078511
 455	1	51.260916	49.660942	24.600827
 456	1	50.388534	48.272651	21.468480
 457	1	50.024734	53.571387	25.207269
 458	1	46.982880	52.397734	26.574625
 459	1	49.182532	50.146215	24.964594
 460	1	50.054914	51.534506	28.096941
 461	1	49.061265	51.912461	26.210857
 462	1	46.019411	50.738807	27.578213
 463	1	49.091445	49.875580	29.100529
 464	1	48.219063	48.487288	25.968183
 465	1	47.855263	53.786025	29.706972
 466	1	44.813409	52.612371	31.074328
 467	1	47.013060	50.360853	29.464297
 468	1	47.885443	51.749144	32.596644
 469	1	46.891794	52.127098	30.710560
 470	1	43.849940	50.953444	32.077916
 471	1	46.921974	50.090217	33.600232
 472	1	46.049591	48.701926	30.467885
 473	1	45.685791	54.000662	34.206674
 474	1	42.643938	52.827009	35.574030
 475	1	44.843589	50.575490	33.964000
 476	1	45.715971	51.963781	37.096347
 477	1	44.722322	52.341736	35.210263
 478	1	41.680469	51.168082	36.577619
 479	1	44.752502	50.304855	38.099935
 480	1	43.880120	48.916564	34.967588
 481	1	43.516320	54.215300	38.706377
 482	1	40.474466	53.041646	40.073733
 483	1	42.674118	50.790128	38.463703
 484	1	43.546500	52.178419	41.596049
 485	1	42.552851	52.556373	39.709966
 486	1	39.510997	51.382720	41.077322
 487	1	42.583031	50.519492	42.599638
 488	1	41.710649	49.131201	39.467291
 489	1	41.346849	54.429937	43.206080
 490	1	38.304995	53.256284	44.573436
 491	1	40.504646	51.004765	42.963405
 492	1	41.377029	52.393057	46.095752
 493	1	40.383380	52.771011	44.209668
 494	1	37.341526	51.597357	45.577024
 495	1	40.413560	50.734130	47.099340
 496	1	39.541177	49.345839	43.966994
 497	1	39.177377	54.644575	47.705783
 498	1	36.135524	53.470921	49.073139
 499	1	38.335175	51.219403	47.463108
 500	1	39.207557	52.607694	50.595455
 501	1	38.213908	52.985648	48.709371
 502	1	35.172054	51.811995	50.076727
 503	1	38.244088	50.948767	51.599043
 504	1	37.371706	49.560476	48.466696
 505	1	36.165704	51.434040	51.962811
 506	1	33.002583	52.026632	54.576430
 507	1	35.202235	49.775114	52.966399
 508	1	30.924198	52.511905	54.940197
 509	1	27.882345	51.338251	56.307553
 510	1	30.081996	49.086733	54.697523
 511	1	29.960729	50.852978	55.943786
 512	1	26.918876	49.679325	57.311142
 513	1	29.118527	47.427806	55.701111
 514	1	27.009962	49.949960	53.175207
 515	1	23.968108	48.776306	54.542563
 516	1	26.167760	46.524788	52.932532
 517	1	27.040142	47.913079	56.064879
 518	1	26.046493	48.291033	54.178795
 519	1	23.004639	47.117380	55.546151
 520	1	26.076673	46.254153	57.068467
 521	1	25.204291	44.865861	53.936120
 522	1	23.095726	47.388015	51.410216
 523	1	20.053872	46.214361	52.777572
 524	1	22.253523	43.962843	51.167541
 525	1	23.125906	45.351134	54.299888
 526	1	22.132257	45.729088	52.413804
 527	1	19.090403	44.555435	53.781160
 528	1	22.162437	43.692208	55.303476
 529	1	21.290054	42.303916	52.171130
 530	1	19.181490	44.826070	49.645225
 531	1	16.139636	43.652416	51.012581
 532	1	18.339287	41.400898	49.402550
 533	1	19.211670	42.789189	52.534897
 534	1	18.218021	43.167143	50.648813
 535	1	15.176167	41.993490	52.016169
 536	1	18.248201	41.130263	53.538486
 537	1	17.375818	39.741971	50.406139
 538	1	15.267253	42.264125	47.880234
 539	1	12.225400	41.090471	49.247590
 540	1	14.425051	38.838953	47.637560
 541	1	15.297433	40.227244	50.769906
 542	1	14.303784	40.605198	48.883823
 543	1	11.261931	39.431545	50.251179
 544	1	14.333964	38.568318	51.773495
 545	1	13.461582	37.180026	48.641148
 546	1	11.353017	39.702180	46.115243
 547	1	8.311163	38.528526	47.482599
 548	1	10.510815	36.277008	45.872569
 549	1	11.383197	37.665299	49.004916
 550	1	10.389548	38.043253	47.118832
 551	1	7.347694	36.869600	48.486188
 552	1	10.419728	36.006373	50.008504
 553	1	9.547346	34.618081	46.876157
 554	1	7.438781	37.140235	44.350253
 555	1	4.396927	35.966581	45.717609
 556	1	6.596578	33.715063	44.107578
 557	1	7.468961	35.103354	47.239925
 558	1	6.475312	35.481308	45.353841
 559	1	3.433458	34.307655	46.721197
 560	1	6.505492	33.444428	48.243513
 561	1	5.633109	32.056136	45.111166
 562	1	3.524545	34.578290	42.585262
 563	1	0.482691	33.404636	43.952618
 564	1	2.682342	31.153118	42.342587
 565	1	3.554725	32.541409	45.474934
 566	1	2.561076	32.919364	43.588850
 567	1	2.591256	30.882483	46.478522
 568	1	1.718873	29.494191	43.346176
 569	1	5.694016	34.363653	38.085559
 570	1	2.652162	33.189999	39.452915
 571	1	4.851814	30.938481	37.842885
 572	1	5.724196	32.326772	40.975231
 573	1	4.730547	32.704726	39.089148
 574	1	1.688693	31.531072	40.456503
 575	1	4.760727	30.667845	41.978820
 576	1	3.888345	29.279554	38.846473
 577	1	7.863487	34.149015	33.585856
 578	1	4.821633	32.975361	34.953212
 579	1	7.021285	30.723843	33.343182
 580	1	7.893667	32.112134	36.475529
 581	1	6.900018	32.490088	34.589445
 582	1	3.858164	31.316435	35.956801
 583	1	6.930198	30.453208	37.479117
 584	1	6.057816	29.064916	34.346770
 585	1	10.032959	33.934378	29.086154
 586	1	6.991105	32.760724	30.453510
 587	1	9.190756	30.509205	28.843479
 588	1	10.063139	31.897497	31.975826
 589	1	9.069490	32.275451	30.089742
 590	1	6.027636	31.101797	31.457098
 591	1	9.099670	30.238570	32.979414
 592	1	8.227287	28.850279	29.847067
 593	1	12.202430	33.719740	24.586451
 594	1	9.160576	32.546086	25.953807
 595	1	11.360228	30.294568	24.343776
 596	1	12.232610	31.682859	27.476123
 597	1	11.238961	32.060813	25.590039
 598	1	8.197107	30.887160	26.957395
 599	1	11.269141	30.023933	28.479711
 600	1	10.396759	28.635641	25.347365
 601	1	14.371901	33.505103	20.086748
 602	1	11.330048	32.331449	21.454104
 603	1	13.529699	30.079930	19.844074
 604	1	14.402081	31.468222	22.976420
 605	1	13.408432	31.846176	21.090337
 606	1	10.366579	30.672522	22.457693
 607	1	13.438612	29.809295	23.980009
 608	1	12.566230	28.421004	20.847662
 609	1	16.541373	33.290465	15.587045
 610	1	13.499519	32.116811	16.954401
 611	1	15.699170	29.865293	15.344371
 612	1	16.571553	31.253584	18.476718
 613	1	15.577904	31.631538	16.590634
 614	1	12.536050	30.457885	17.957990
 615	1	15.608084	29.594657	19.480306
 616	1	14.735701	28.206366	16.347959
 617	1	18.710844	33.075827	11.087343
 618	1	15.668990	31.902174	12.454699
 619	1	17.868642	29.650655	10.844668
 620	1	18.741024	31.038947	13.977015
 621	1	17.747375	31.416901	12.090931
 622	1	14.705521	30.243247	13.458287
 623	1	17.777555	29.380020	14.980603
 624	1	16.905173	27.991729	11.848256
 625	1	20.880315	32.861190	6.587640
 626	1	17.838462	31.687536	7.954996
 627	1	20.038113	29.436018	6.344965
 628	1	20.910495	30.824309	9.477312
 629	1	19.916846	31.202263	7.591228
 630	1	16.874993	30.028610	8.958584
 631	1	19.947026	29.165382	10.480900
 632	1	19.074644	27.777091	7.348554
 633	1	23.049787	32.646552	2.087937
 634	1	20.007933	31.472899	3.455293
 635	1	22.207584	29.221380	1.845263
 636	1	23.079967	30.609672	4.977609
 637	1	22.086318	30.987626	3.091526
 638	1	19.044464	29.813972	4.458882
 639	1	22.116498	28.950745	5.981198
 640	1	21.244115	27.562454	2.848851
 641	1	26.964023	35.208497	3.852928
 642	1	23.922169	34.034844	5.220284
 643	1	26.121821	31.783325	3.610253
 644	1	26.994203	33.171617	6.742600
 645	1	26.000554	33.549571	4.856516
 646	1	22.958700	32.375917	6.223872
 647	1	26.030734	31.512690	7.746189
 648	1	25.158352	30.124399	4.613842
 649	1	30.878259	37.770442	5.617919
 650	1	27.836405	36.596789	6.985275
 651	1	30.036057	34.345270	5.375244
 652	1	30.908439	35.733561	8.507591
 653	1	29.914790	36.111516	6.621507
 654	1	26.872936	34.937862	7.988863
 655	1	29.944970	34.074635	9.511179
 656	1	29.072588	32.686344	6.378833
 657	1	34.792496	40.332387	7.382909
 658	1	31.750642	39.158734	8.750265
 659	1	33.950293	36.907215	7.140235
 660	1	34.822676	38.295506	10.272582
 661	1	33.829026	38.673461	8.386498
 662	1	30.787173	37.499807	9.753854
 663	1	33.859207	36.636580	11.276170
 664	1	32.986824	35.248289	8.143823
 665	1	38.706732	42.894332	9.147900
 666	1	35.664878	41.720679	10.515256
 667	1	37.864529	39.469160	8.905226
 668	1	38.736912	40.857451	12.037572
 669	1	37.743263	41.235406	10.151489
 670	1	34.701409	40.061752	11.518845
 671	1	37.773443	39.198525	13.041161
 672	1	36.901060	37.810234	9.908814
 673	1	42.620968	45.456277	10.912891
 674	1	39.579114	44.282624	12.280247
 675	1	41.778766	42.031105	10.670216
 676	1	42.651148	43.419396	13.802563
 677	1	41.657499	43.797351	11.916479
 678	1	38.615645	42.623697	13.283835
 679	1	41.687679	41.760470	14.806152
 680	1	40.815297	40.372178	11.673805
 681	1	46.535204	48.018222	12.677882
 682	1	43.493350	46.844569	14.045238
 683	1	45.693002	44.593050	12.435207
 684	1	46.565384	45.981341	15.567554
 685	1	45.571735	46.359296	13.681470
 686	1	42.529881	45.185642	15.048826
 687	1	45.601915	44.322415	16.571142
 688	1	44.729533	42.934123	13.438796
 689	1	50.449441	50.580167	14.442873
 690	1	47.407587	49.406514	15.810229
 691	1	49.607238	47.154995	14.200198
 692	1	50.479621	48.543286	17.332545
 693	1	49.485971	48.921241	15.446461
 694	1	46.444118	47.747587	16.813817
 695	1	49.516152	46.884360	18.336133
 696	1	48.643769	45.496068	15.203786
 697	1	54.363677	53.142112	16.207863
 698	1	51.321823	51.968459	17.575219
 699	1	53.521474	49.716940	15.965189
 700	1	54.393857	51.105231	19.097536
 701	1	53.400208	51.483186	17.211452
 702	1	50.358354	50.309532	18.578808
 703	1	53.430388	49.446305	20.101124
 704	1	52.558005	48.058013	16.968777
 705	1	58.277913	55.704057	17.972854
 706	1	55.236059	54.530404	19.340210
 707	1	57.435711	52.278885	17.730180
 708	1	58.308093	53.667176	20.862526
 709	1	57.314444	54.045131	18.976443
 710	1	54.272590	52.871477	20.343799
 711	1	57.344624	52.008250	21.866115
 712	1	56.472242	50.619958	18.733768
 713	1	56.108442	55.918695	22.472557
 714	1	53.066588	54.745041	23.839913
 715	1	55.266239	52.493523	22.229882
 716	1	56.138622	53.881814	25.362229
 717	1	55.144973	54.259768	23.476145
 718	1	52.103119	53.086114	24.843501
 719	1	55.175153	52.222887	26.365818
 720	1	54.302770	50.834596	23.233471
 721	1	53.938970	56.133332	26.972260
 722	1	50.897117	54.959679	28.339616
 723	1	53.096768	52.708160	26.729585
 724	1	53.969150	54.096451	29.861932
 725	1	52.975501	54.474406	27.975848
 726	1	49.933648	53.300752	29.343204
 727	1	53.005681	52.437525	30.865520
 728	1	52.133299	51.049233	27.733174
 729	1	51.769499	56.347970	31.471962
 730	1	48.727645	55.174316	32.839318
 731	1	50.927297	52.922798	31.229288
 732	1	51.799679	54.311089	34.361635
 733	1	50.806030	54.689043	32.475551
 734	1	47.764176	53.515389	33.842907
 735	1	50.836210	52.652162	35.365223
 736	1	49.963828	51.263871	32.232876
 737	1	49.600028	56.562607	35.971665
 738	1	46.558174	55.388954	37.339021
 739	1	48.757825	53.137435	35.728991
 740	1	49.630208	54.525726	38.861337
 741	1	48.636559	54.903681	36.975254
 742	1	45.594705	53.730027	38.342610
 743	1	48.666739	52.866800	39.864926
 744	1	47.794356	51.478509	36.732579
 745	1	47.430556	56.777245	40.471368
 746	1	44.388702	55.603591	41.838724
 747	1	46.588354	53.352073	40.228693
 748	1	47.460736	54.740364	43.361040
 749	1	46.467087	55.118318	41.474956
 750	1	43.425233	53.944664	42.842312
 751	1	46.497267	53.081437	44.364629
 752	1	45.624885	51.693146	41.232282
 753	1	42.219231	55.818229	46.338427
 754	1	44.418883	53.566710	44.728396
 755	1	44.297616	55.332956	45.974659
 756	1	41.255762	54.159302	47.342015
 757	1	43.455414	51.907784	45.731984
 758	1	26.949056	47.642444	60.200814
 759	1	24.840491	50.164598	57.674909
 760	1	21.798637	48.990944	59.042265
 761	1	23.998288	46.739425	57.432235
 762	1	24.870671	48.127717	60.564581
 763	1	23.877022	48.505671	58.678498
 764	1	20.835168	47.332017	60.045854
 765	1	23.907202	46.468790	61.568170
 766	1	23.034819	45.080499	58.435823
 767	1	20.926254	47.602653	55.909919
 768	1	17.884401	46.428999	57.277274
 769	1	20.084052	44.177480	55.667244
 770	1	20.956435	45.565772	58.799591
 771	1	19.962785	45.943726	56.913507
 772	1	16.920932	44.770072	58.280863
 773	1	19.992966	43.906845	59.803179
 774	1	19.120583	42.518554	56.670832
 775	1	17.012018	45.040708	54.144928
 776	1	13.970164	43.867054	55.512284
 777	1	16.169816	41.615536	53.902253
 778	1	17.042198	43.003827	57.034600
 779	1	16.048549	43.381781	55.148516
 780	1	13.006695	42.208127	56.515872
 781	1	16.078729	41.344900	58.038188
 782	1	15.206347	39.956609	54.905842
 783	1	13.097782	42.478763	52.379937
 784	1	10.055928	41.305109	53.747293
 785	1	12.255580	39.053591	52.137262
 786	1	13.127962	40.441882	55.269609
 787	1	12.134313	40.819836	53.383525
 788	1	9.092459	39.646182	54.750881
 789	1	12.164493	38.782955	56.273198
 790	1	11.292111	37.394664	53.140851
 791	1	9.183546	39.916818	50.614946
 792	1	6.141692	38.743164	51.982302
 793	1	8.341343	36.491646	50.372272
 794	1	9.213726	37.879937	53.504618
 795	1	8.220077	38.257891	51.618535
 796	1	5.178223	37.084237	52.985891
 797	1	8.250257	36.221010	54.508207
 798	1	7.377874	34.832719	51.375860
 799	1	5.269309	37.354873	48.849955
 800	1	2.227456	36.181219	50.217311
 801	1	4.427107	33.929701	48.607281
 802	1	5.299490	35.317992	51.739628
 803	1	4.305840	35.695946	49.853544
 804	1	1.263987	34.522292	51.220900
 805	1	4.336021	33.659065	52.743216
 806	1	3.463638	32.270774	49.610869
 807	1	1.355073	34.792928	47.084965
 808	1	0.512871	31.367756	46.842290
 809	1	1.385253	32.756047	49.974637
 810	1	0.391604	33.134001	48.088553