 Start File for LAMMPS Voronoi Si; S:202020 vN:5 g:0.000000 r:0.800000 asV:102.544 rand:1508214525 

 63945 atoms       

 1 atom types

 0.0  108.600000 xlo xhi
 0.0  108.600000 ylo yhi
 0.0  108.600000 zlo zhi

 Masses

 1  28.0855

 Atoms

 1	1	11.989409	13.127229	77.537094
 2	1	10.582955	10.978666	80.391566
 3	1	14.192777	10.454124	79.193030
 4	1	13.255027	13.636262	81.126181
 5	1	12.505042	12.049070	79.561968
 6	1	11.098587	9.900507	82.416439
 7	1	13.770660	12.558103	83.151055
 8	1	14.708410	9.375965	81.217904
 9	1	14.333614	12.093655	72.749471
 10	1	12.927159	9.945091	75.603943
 11	1	16.536982	9.420550	74.405408
 12	1	15.599232	12.602688	76.338558
 13	1	14.849247	11.015496	74.774345
 14	1	13.442792	8.866932	77.628817
 15	1	16.114865	11.524529	78.363432
 16	1	17.052615	8.342391	76.430282
 17	1	14.802318	17.424357	71.828150
 18	1	13.395863	15.275793	74.682622
 19	1	17.005686	14.751252	73.484087
 20	1	16.067936	17.933390	75.417237
 21	1	15.317951	16.346198	73.853024
 22	1	13.911496	14.197634	76.707496
 23	1	16.583568	16.855231	77.442111
 24	1	17.521319	13.673093	75.508961
 25	1	12.458113	18.457931	76.615772
 26	1	11.051658	16.309368	79.470244
 27	1	14.661481	15.784826	78.271709
 28	1	13.723731	18.966964	80.204859
 29	1	12.973746	17.379772	78.640646
 30	1	11.567291	15.231209	81.495118
 31	1	14.239364	17.888805	82.229733
 32	1	15.177114	14.706667	80.296583
 33	1	10.113908	19.491506	81.403394
 34	1	8.707454	17.342942	84.257866
 35	1	12.317276	16.818401	83.059331
 36	1	11.379526	20.000539	84.992482
 37	1	10.629541	18.413347	83.428268
 38	1	9.223087	16.264783	86.282740
 39	1	11.895159	18.922380	87.017356
 40	1	12.832909	15.740242	85.084205
 41	1	9.645204	14.160804	82.324716
 42	1	8.238750	12.012240	85.179188
 43	1	11.848572	11.487699	83.980653
 44	1	10.910822	14.669837	85.913803
 45	1	10.160837	13.082645	84.349590
 46	1	8.754383	10.934081	87.204062
 47	1	11.426455	13.591678	87.938677
 48	1	12.364205	10.409540	86.005527
 49	1	9.176500	8.830102	83.246037
 50	1	7.770046	6.681538	86.100509
 51	1	11.379868	6.156997	84.901974
 52	1	10.442118	9.339135	86.835125
 53	1	9.692133	7.751943	85.270911
 54	1	8.285679	5.603379	88.125383
 55	1	10.957751	8.260976	88.859999
 56	1	11.895501	5.078838	86.926848
 57	1	11.520705	7.796527	78.458415
 58	1	10.114251	5.647964	81.312887
 59	1	13.724073	5.123422	80.114352
 60	1	12.786323	8.305561	82.047502
 61	1	12.036338	6.718369	80.483289
 62	1	10.629884	4.569805	83.337761
 63	1	13.301956	7.227402	84.072376
 64	1	14.239706	4.045263	82.139226
 65	1	13.864910	6.762953	73.670793
 66	1	12.458455	4.614389	76.525265
 67	1	16.068278	4.089848	75.326730
 68	1	15.130528	7.271986	77.259880
 69	1	14.380543	5.684794	75.695667
 70	1	12.974088	3.536230	78.550139
 71	1	15.646161	6.193827	79.284754
 72	1	16.583911	3.011689	77.351604
 73	1	16.209115	5.729379	68.883171
 74	1	14.802660	3.580815	71.737642
 75	1	18.412483	3.056273	70.539107
 76	1	17.474733	6.238412	72.472258
 77	1	16.724748	4.651220	70.908045
 78	1	15.318293	2.502656	73.762516
 79	1	17.990365	5.160253	74.497132
 80	1	18.928116	1.978114	72.563981
 81	1	16.677819	11.060080	67.961849
 82	1	15.271364	8.911517	70.816321
 83	1	18.881187	8.386975	69.617786
 84	1	17.943436	11.569113	71.550936
 85	1	17.193452	9.981922	69.986723
 86	1	15.786997	7.833358	72.841195
 87	1	18.459069	10.490955	73.575810
 88	1	19.396820	7.308816	71.642660
 89	1	17.146523	16.390782	67.040527
 90	1	15.740068	14.242219	69.894999
 91	1	19.349891	13.717677	68.696464
 92	1	18.412140	16.899815	70.629615
 93	1	17.662155	15.312623	69.065401
 94	1	16.255701	13.164060	71.919873
 95	1	18.927773	15.821656	72.654489
 96	1	19.865524	12.639518	70.721338
 97	1	17.615226	21.721484	66.119206
 98	1	16.208772	19.572921	68.973678
 99	1	19.818595	19.048379	67.775143
 100	1	18.880844	22.230517	69.708293
 101	1	18.130859	20.643325	68.144080
 102	1	16.724405	18.494762	70.998552
 103	1	19.396477	21.152358	71.733167
 104	1	20.334228	17.970220	69.800017
 105	1	15.271022	22.755059	70.906828
 106	1	13.864567	20.606495	73.761300
 107	1	17.474390	20.081954	72.562765
 108	1	16.536639	23.264092	74.495915
 109	1	15.786655	21.676900	72.931702
 110	1	14.380200	19.528336	75.786174
 111	1	17.052272	22.185933	76.520789
 112	1	17.990023	19.003795	74.587639
 113	1	12.926817	23.788633	75.694451
 114	1	11.520362	21.640070	78.548922
 115	1	15.130185	21.115528	77.350387
 116	1	14.192435	24.297666	79.283538
 117	1	13.442450	22.710474	77.719325
 118	1	12.035995	20.561911	80.573796
 119	1	14.708067	23.219507	81.308412
 120	1	15.645818	20.037369	79.375261
 121	1	10.582612	24.822208	80.482073
 122	1	9.176157	22.673644	83.336545
 123	1	12.785980	22.149103	82.138010
 124	1	11.848230	25.331241	84.071160
 125	1	11.098245	23.744049	82.506947
 126	1	9.691790	21.595485	85.361419
 127	1	12.363863	24.253082	86.096034
 128	1	13.301613	21.070944	84.162884
 129	1	8.238407	25.855782	85.269695
 130	1	6.831953	23.707219	88.124167
 131	1	10.441775	23.182677	86.925632
 132	1	9.504025	26.364815	88.858782
 133	1	8.754040	24.777623	87.294569
 134	1	7.347586	22.629060	90.149041
 135	1	10.019658	25.286656	90.883656
 136	1	10.957408	22.104518	88.950506
 137	1	7.769703	20.525080	86.191017
 138	1	6.363249	18.376517	89.045489
 139	1	9.973071	17.851975	87.846953
 140	1	9.035321	21.034113	89.780104
 141	1	8.285336	19.446921	88.215891
 142	1	6.878882	17.298358	91.070363
 143	1	9.550954	19.955954	91.804978
 144	1	10.488704	16.773816	89.871827
 145	1	7.300999	15.194378	87.112338
 146	1	5.894545	13.045815	89.966810
 147	1	9.504367	12.521273	88.768275
 148	1	8.566617	15.703411	90.701425
 149	1	7.816632	14.116219	89.137212
 150	1	6.410178	11.967656	91.991684
 151	1	9.082250	14.625252	92.726299
 152	1	10.020000	11.443114	90.793149
 153	1	6.832295	9.863676	88.033660
 154	1	5.425841	7.715113	90.888132
 155	1	9.035664	7.190571	89.689597
 156	1	8.097913	10.372709	91.622747
 157	1	7.347928	8.785517	90.058534
 158	1	5.941474	6.636954	92.913006
 159	1	8.613546	9.294550	93.647621
 160	1	9.551297	6.112412	91.714471
 161	1	6.363591	4.532975	88.954981
 162	1	4.957137	2.384411	91.809453
 163	1	8.566960	1.859869	90.610918
 164	1	7.629209	5.042008	92.544068
 165	1	6.879224	3.454816	90.979855
 166	1	5.472770	1.306252	93.834327
 167	1	8.144842	3.963849	94.568942
 168	1	9.082593	0.781710	92.635792
 169	1	8.707796	3.499400	84.167359
 170	1	7.301342	1.350836	87.021831
 171	1	10.911165	0.826295	85.823296
 172	1	9.973414	4.008433	87.756446
 173	1	9.223429	2.421241	86.192233
 174	1	7.816975	0.272677	89.046705
 175	1	10.489047	2.930274	89.781320
 176	1	11.052001	2.465826	79.379737
 177	1	9.645547	0.317262	82.234209
 178	1	12.317619	2.974859	82.968824
 179	1	11.567634	1.387667	81.404611
 180	1	12.833252	1.896700	84.993698
 181	1	13.396206	1.432251	74.592114
 182	1	14.661824	1.941284	78.181202
 183	1	13.911839	0.354092	76.616988
 184	1	15.177457	0.863125	80.206076
 185	1	15.740411	0.398677	69.804492
 186	1	17.006029	0.907710	73.393579
 187	1	18.553320	4.695804	64.095548
 188	1	17.146865	2.547240	66.950020
 189	1	20.756688	2.022699	65.751485
 190	1	19.818937	5.204837	67.684635
 191	1	19.068953	3.617645	66.120422
 192	1	17.662498	1.469081	68.974894
 193	1	20.334570	4.126678	69.709509
 194	1	21.272321	0.944540	67.776359
 195	1	19.022024	10.026506	63.174227
 196	1	17.615569	7.877942	66.028699
 197	1	21.225392	7.353401	64.830163
 198	1	20.287641	10.535539	66.763314
 199	1	19.537656	8.948347	65.199101
 200	1	18.131202	6.799783	68.053573
 201	1	20.803274	9.457380	68.788188
 202	1	21.741025	6.275242	66.855037
 203	1	19.490727	15.357208	62.252905
 204	1	18.084273	13.208644	65.107377
 205	1	21.694096	12.684103	63.908842
 206	1	20.756345	15.866241	65.841992
 207	1	20.006360	14.279049	64.277779
 208	1	18.599906	12.130485	67.132251
 209	1	21.271978	14.788082	67.866866
 210	1	22.209729	11.605944	65.933716
 211	1	19.959431	20.687910	61.331584
 212	1	18.552977	18.539346	64.186056
 213	1	22.162800	18.014805	62.987520
 214	1	21.225049	21.196943	64.920671
 215	1	20.475064	19.609751	63.356458
 216	1	19.068610	17.461187	66.210930
 217	1	21.740682	20.118784	66.945545
 218	1	22.678433	16.936646	65.012394
 219	1	20.428135	26.018612	60.410262
 220	1	19.021681	23.870048	63.264734
 221	1	22.631504	23.345507	62.066199
 222	1	21.693753	26.527645	63.999349
 223	1	20.943768	24.940453	62.435136
 224	1	19.537314	22.791889	65.289608
 225	1	22.209386	25.449486	66.024223
 226	1	23.147136	22.267348	64.091073
 227	1	18.083930	27.052186	65.197884
 228	1	16.677476	24.903623	68.052356
 229	1	20.287299	24.379081	66.853821
 230	1	19.349548	27.561219	68.786972
 231	1	18.599563	25.974027	67.222758
 232	1	17.193109	23.825464	70.077230
 233	1	19.865181	26.483060	70.811846
 234	1	20.802932	23.300922	68.878695
 235	1	15.739726	28.085761	69.985507
 236	1	14.333271	25.937197	72.839979
 237	1	17.943094	25.412656	71.641444
 238	1	17.005343	28.594794	73.574594
 239	1	16.255358	27.007602	72.010381
 240	1	14.848904	24.859038	74.864853
 241	1	17.520976	27.516635	75.599468
 242	1	18.458727	24.334497	73.666317
 243	1	13.395521	29.119335	74.773129
 244	1	11.989066	26.970772	77.627601
 245	1	15.598889	26.446230	76.429066
 246	1	14.661138	29.628368	78.362216
 247	1	13.911154	28.041176	76.798003
 248	1	12.504699	25.892613	79.652475
 249	1	15.176771	28.550209	80.387090
 250	1	16.114522	25.368071	78.453940
 251	1	11.051316	30.152910	79.560751
 252	1	9.644861	28.004346	82.415223
 253	1	13.254684	27.479805	81.216688
 254	1	12.316934	30.661943	83.149839
 255	1	11.566949	29.074751	81.585625
 256	1	10.160494	26.926187	84.440097
 257	1	12.832567	29.583784	85.174712
 258	1	13.770317	26.401646	83.241562
 259	1	8.707111	31.186484	84.348374
 260	1	7.300657	29.037921	87.202846
 261	1	10.910479	28.513379	86.004310
 262	1	9.972729	31.695517	87.937461
 263	1	9.222744	30.108325	86.373248
 264	1	7.816289	27.959762	89.227720
 265	1	10.488362	30.617358	89.962335
 266	1	11.426112	27.435220	88.029184
 267	1	6.362906	32.220059	89.135996
 268	1	4.956452	30.071495	91.990468
 269	1	8.566274	29.546954	90.791933
 270	1	7.628524	32.729092	92.725083
 271	1	6.878539	31.141900	91.160870
 272	1	5.472085	28.993336	94.015342
 273	1	8.144157	31.650933	94.749957
 274	1	9.081907	28.468795	92.816807
 275	1	5.894202	26.889357	90.057317
 276	1	4.487748	24.740793	92.911789
 277	1	8.097570	24.216252	91.713254
 278	1	7.159820	27.398390	93.646405
 279	1	6.409835	25.811198	92.082191
 280	1	5.003381	23.662634	94.936663
 281	1	7.675453	26.320231	95.671279
 282	1	8.613203	23.138093	93.738128
 283	1	5.425498	21.558655	90.978639
 284	1	4.019044	19.410091	93.833111
 285	1	7.628867	18.885550	92.634576
 286	1	6.691116	22.067688	94.567726
 287	1	5.941131	20.480496	93.003513
 288	1	4.534677	18.331932	95.857985
 289	1	7.206749	20.989529	96.592600
 290	1	8.144499	17.807391	94.659450
 291	1	4.956794	16.227953	91.899961
 292	1	3.550340	14.079389	94.754432
 293	1	7.160163	13.554848	93.555897
 294	1	6.222412	16.736986	95.489048
 295	1	5.472427	15.149794	93.924834
 296	1	4.065973	13.001230	96.779306
 297	1	6.738045	15.658827	97.513922
 298	1	7.675796	12.476689	95.580771
 299	1	4.488090	10.897251	92.821282
 300	1	3.081636	8.748687	95.675754
 301	1	6.691459	8.224146	94.477219
 302	1	5.753708	11.406284	96.410369
 303	1	5.003723	9.819092	94.846156
 304	1	3.597269	7.670528	97.700628
 305	1	6.269341	10.328125	98.435243
 306	1	7.207092	7.145987	96.502093
 307	1	4.019387	5.566549	93.742604
 308	1	2.612932	3.417985	96.597075
 309	1	6.222755	2.893444	95.398540
 310	1	5.285004	6.075582	97.331691
 311	1	4.535019	4.488390	95.767478
 312	1	3.128565	2.339826	98.621949
 313	1	5.800637	4.997423	99.356565
 314	1	6.738388	1.815285	97.423414
 315	1	3.550683	0.235847	94.663925
 316	1	4.816300	0.744880	98.253012
 317	1	20.897524	3.662230	59.307926
 318	1	19.491070	1.513666	62.162398
 319	1	23.100893	0.989124	60.963863
 320	1	22.163142	4.171263	62.897013
 321	1	21.413157	2.584071	61.332800
 322	1	20.006703	0.435507	64.187272
 323	1	22.678775	3.093104	64.921887
 324	1	21.366228	8.992932	58.386604
 325	1	19.959774	6.844368	61.241076
 326	1	23.569597	6.319826	60.042541
 327	1	22.631846	9.501965	61.975692
 328	1	21.881861	7.914773	60.411478
 329	1	20.475407	5.766209	63.265950
 330	1	23.147479	8.423806	64.000566
 331	1	24.085230	5.241667	62.067415
 332	1	21.834932	14.323633	57.465283
 333	1	20.428478	12.175070	60.319755
 334	1	24.038301	11.650528	59.121220
 335	1	23.100550	14.832666	61.054370
 336	1	22.350565	13.245474	59.490157
 337	1	20.944111	11.096911	62.344629
 338	1	23.616183	13.754508	63.079244
 339	1	24.553934	10.572369	61.146094
 340	1	22.303636	19.654335	56.543961
 341	1	20.897182	17.505772	59.398433
 342	1	24.507004	16.981230	58.199898
 343	1	23.569254	20.163368	60.133049
 344	1	22.819269	18.576176	58.568835
 345	1	21.412815	16.427613	61.423307
 346	1	24.084887	19.085209	62.157922
 347	1	25.022637	15.903071	60.224772
 348	1	22.772340	24.985037	55.622640
 349	1	21.365886	22.836474	58.477112
 350	1	24.975708	22.311932	57.278577
 351	1	24.037958	25.494070	59.211727
 352	1	23.287973	23.906878	57.647514
 353	1	21.881519	21.758315	60.501986
 354	1	24.553591	24.415911	61.236601
 355	1	25.491341	21.233773	59.303451
 356	1	23.241044	30.315739	54.701318
 357	1	21.834590	28.167176	57.555790
 358	1	25.444412	27.642634	56.357255
 359	1	24.506662	30.824772	58.290405
 360	1	23.756677	29.237580	56.726192
 361	1	22.350223	27.089017	59.580664
 362	1	25.022295	29.746613	60.315279
 363	1	25.960045	26.564475	58.382129
 364	1	20.896839	31.349314	59.488941
 365	1	19.490385	29.200750	62.343412
 366	1	23.100207	28.676209	61.144877
 367	1	22.162457	31.858347	63.078028
 368	1	21.412472	30.271155	61.513815
 369	1	20.006018	28.122591	64.368286
 370	1	22.678090	30.780188	65.102902
 371	1	23.615840	27.598050	63.169751
 372	1	18.552634	32.382888	64.276563
 373	1	17.146180	30.234325	67.131035
 374	1	20.756003	29.709783	65.932500
 375	1	19.818252	32.891921	67.865650
 376	1	19.068267	31.304729	66.301437
 377	1	17.661813	29.156166	69.155909
 378	1	20.333885	31.813762	69.890524
 379	1	21.271636	28.631624	67.957374
 380	1	16.208429	33.416463	69.064185
 381	1	14.801975	31.267899	71.918657
 382	1	18.411798	30.743358	70.720122
 383	1	17.474047	33.925496	72.653272
 384	1	16.724062	32.338304	71.089059
 385	1	15.317608	30.189740	73.943531
 386	1	17.989680	32.847337	74.678146
 387	1	18.927431	29.665199	72.744996
 388	1	13.864225	34.450037	73.851807
 389	1	12.457770	32.301474	76.706279
 390	1	16.067593	31.776932	75.507744
 391	1	15.129842	34.959070	77.440895
 392	1	14.379857	33.371878	75.876681
 393	1	12.973403	31.223315	78.731153
 394	1	15.645475	33.880911	79.465769
 395	1	16.583226	30.698773	77.532618
 396	1	11.520020	35.483612	78.639430
 397	1	10.113565	33.335048	81.493902
 398	1	13.723388	32.810507	80.295367
 399	1	12.785638	35.992645	82.228517
 400	1	12.035653	34.405453	80.664304
 401	1	10.629198	32.256889	83.518776
 402	1	13.301270	34.914486	84.253391
 403	1	14.239021	31.732348	82.320241
 404	1	9.175815	36.517186	83.427052
 405	1	7.769360	34.368622	86.281524
 406	1	11.379183	33.844081	85.082989
 407	1	10.441433	37.026219	87.016139
 408	1	9.691448	35.439027	85.451926
 409	1	8.284993	33.290463	88.306398
 410	1	10.957066	35.948060	89.041013
 411	1	11.894816	32.765922	87.107863
 412	1	6.831610	37.550761	88.214674
 413	1	5.425156	35.402197	91.069146
 414	1	9.034978	34.877655	89.870611
 415	1	8.097228	38.059794	91.803762
 416	1	7.347243	36.472602	90.239548
 417	1	5.940788	34.324038	93.094020
 418	1	8.612861	36.981635	93.828636
 419	1	9.550611	33.799497	91.895485
 420	1	4.487405	38.584335	93.002297
 421	1	3.080951	36.435771	95.856769
 422	1	6.690773	35.911230	94.658234
 423	1	5.753023	39.093368	96.591384
 424	1	5.003038	37.506176	95.027171
 425	1	3.596584	35.357612	97.881643
 426	1	6.268656	38.015209	98.616258
 427	1	7.206406	34.833071	96.683107
 428	1	4.018701	33.253633	93.923618
 429	1	2.612247	31.105069	96.778090
 430	1	6.222069	30.580528	95.579555
 431	1	5.284319	33.762666	97.512705
 432	1	4.534334	32.175474	95.948492
 433	1	3.127880	30.026911	98.802964
 434	1	5.799952	32.684507	99.537579
 435	1	6.737702	29.502369	97.604429
 436	1	3.549997	27.922931	94.844940
 437	1	2.143543	25.774368	97.699412
 438	1	5.753366	25.249826	96.500877
 439	1	4.815615	28.431964	98.434027
 440	1	4.065630	26.844772	96.869814
 441	1	2.659176	24.696209	99.724286
 442	1	5.331248	27.353805	100.458901
 443	1	6.268999	24.171667	98.525751
 444	1	3.081293	22.592229	95.766261
 445	1	1.674839	20.443666	98.620733
 446	1	5.284662	19.919124	97.422198
 447	1	4.346911	23.101262	99.355348
 448	1	3.596926	21.514070	97.791135
 449	1	2.190472	19.365507	100.645607
 450	1	4.862544	22.023103	101.380222
 451	1	5.800295	18.840965	99.447072
 452	1	2.612589	17.261527	96.687583
 453	1	1.206135	15.112964	99.542055
 454	1	4.815958	14.588422	98.343520
 455	1	3.878207	17.770560	100.276670
 456	1	3.128222	16.183368	98.712457
 457	1	1.721768	14.034805	101.566929
 458	1	4.393840	16.692401	102.301544
 459	1	5.331591	13.510263	100.368394
 460	1	2.143886	11.930825	97.608904
 461	1	0.737431	9.782262	100.463376
 462	1	4.347254	9.257720	99.264841
 463	1	3.409503	12.439858	101.197992
 464	1	2.659518	10.852666	99.633778
 465	1	1.253064	8.704103	102.488250
 466	1	3.925136	11.361699	103.222866
 467	1	4.862887	8.179561	101.289715
 468	1	1.675182	6.600123	98.530226
 469	1	0.268727	4.451560	101.384698
 470	1	3.878550	3.927018	100.186163
 471	1	2.940799	7.109156	102.119313
 472	1	2.190815	5.521964	100.555100
 473	1	3.456432	6.030998	104.144187
 474	1	4.394183	2.848859	102.211037
 475	1	1.206478	1.269422	99.451547
 476	1	23.241729	2.628655	54.520304
 477	1	21.835275	0.480091	57.374776
 478	1	24.507347	3.137688	58.109391
 479	1	23.757362	1.550496	56.545178
 480	1	25.022980	2.059529	60.134265
 481	1	23.710433	7.959357	53.598982
 482	1	22.303979	5.810793	56.453454
 483	1	25.913802	5.286252	55.254919
 484	1	24.976051	8.468390	57.188069
 485	1	24.226066	6.881198	55.623856
 486	1	22.819612	4.732634	58.478328
 487	1	25.491684	7.390231	59.212943
 488	1	26.429434	4.208093	57.279793
 489	1	24.179137	13.290059	52.677661
 490	1	22.772683	11.141495	55.532132
 491	1	26.382505	10.616954	54.333597
 492	1	25.444755	13.799092	56.266748
 493	1	24.694770	12.211900	54.702535
 494	1	23.288316	10.063336	57.557006
 495	1	25.960388	12.720933	58.291622
 496	1	26.898138	9.538795	56.358471
 497	1	24.647841	18.620761	51.756339
 498	1	23.241387	16.472197	54.610811
 499	1	26.851209	15.947656	53.412276
 500	1	25.913459	19.129794	55.345426
 501	1	25.163474	17.542602	53.781213
 502	1	23.757020	15.394038	56.635685
 503	1	26.429092	18.051635	57.370300
 504	1	27.366842	14.869497	55.437150
 505	1	25.116545	23.951463	50.835017
 506	1	23.710091	21.802899	53.689489
 507	1	27.319913	21.278358	52.490954
 508	1	26.382163	24.460496	54.424105
 509	1	25.632178	22.873304	52.859891
 510	1	24.225724	20.724740	55.714363
 511	1	26.897796	23.382337	56.448979
 512	1	27.835546	20.200199	54.515828
 513	1	25.585249	29.282165	49.913696
 514	1	24.178794	27.133601	52.768168
 515	1	27.788617	26.609060	51.569633
 516	1	26.850867	29.791198	53.502783
 517	1	26.100882	28.204006	51.938570
 518	1	24.694427	26.055442	54.793042
 519	1	27.366500	28.713039	55.527657
 520	1	28.304250	25.530901	53.594507
 521	1	26.053953	34.612867	48.992374
 522	1	24.647498	32.464303	51.846846
 523	1	28.257321	31.939762	50.648311
 524	1	27.319571	35.121900	52.581462
 525	1	26.569586	33.534708	51.017248
 526	1	25.163131	31.386144	53.871720
 527	1	27.835204	34.043741	54.606336
 528	1	28.772954	30.861603	52.673185
 529	1	23.709748	35.646441	53.779997
 530	1	22.303294	33.497878	56.634469
 531	1	25.913116	32.973336	55.435934
 532	1	24.975366	36.155474	57.369084
 533	1	24.225381	34.568282	55.804871
 534	1	22.818926	32.419719	58.659343
 535	1	25.490999	35.077315	59.393958
 536	1	26.428749	31.895177	57.460808
 537	1	21.365543	36.680016	58.567619
 538	1	19.959089	34.531452	61.422091
 539	1	23.568911	34.006911	60.223556
 540	1	22.631161	37.189049	62.156706
 541	1	21.881176	35.601857	60.592493
 542	1	20.474722	33.453293	63.446965
 543	1	23.146794	36.110890	64.181580
 544	1	24.084544	32.928752	62.248430
 545	1	19.021338	37.713590	63.355241
 546	1	17.614884	35.565026	66.209713
 547	1	21.224706	35.040485	65.011178
 548	1	20.286956	38.222623	66.944329
 549	1	19.536971	36.635431	65.380115
 550	1	18.130517	34.486868	68.234587
 551	1	20.802589	37.144464	68.969203
 552	1	21.740339	33.962326	67.036052
 553	1	16.677133	38.747165	68.142864
 554	1	15.270679	36.598601	70.997336
 555	1	18.880502	36.074060	69.798800
 556	1	17.942751	39.256198	71.731951
 557	1	17.192766	37.669006	70.167738
 558	1	15.786312	35.520442	73.022210
 559	1	18.458384	38.178039	73.756825
 560	1	19.396135	34.995901	71.823674
 561	1	14.332928	39.780739	72.930486
 562	1	12.926474	37.632175	75.784958
 563	1	16.536297	37.107634	74.586423
 564	1	15.598546	40.289772	76.519573
 565	1	14.848561	38.702580	74.955360
 566	1	13.442107	36.554016	77.809832
 567	1	16.114179	39.211613	78.544447
 568	1	17.051930	36.029475	76.611297
 569	1	11.988724	40.814314	77.718108
 570	1	10.582269	38.665750	80.572580
 571	1	14.192092	38.141208	79.374045
 572	1	13.254341	41.323347	81.307195
 573	1	12.504357	39.736155	79.742982
 574	1	11.097902	37.587591	82.597454
 575	1	13.769974	40.245188	83.332069
 576	1	14.707725	37.063049	81.398919
 577	1	9.644519	41.847888	82.505731
 578	1	8.238064	39.699324	85.360202
 579	1	11.847887	39.174783	84.161667
 580	1	10.910137	42.356921	86.094818
 581	1	10.160152	40.769729	84.530605
 582	1	8.753697	38.621165	87.385076
 583	1	11.425769	41.278762	88.119692
 584	1	12.363520	38.096624	86.186541
 585	1	7.300314	42.881463	87.293353
 586	1	5.893859	40.732899	90.147825
 587	1	9.503682	40.208357	88.949290
 588	1	8.565932	43.390496	90.882440
 589	1	7.815947	41.803304	89.318227
 590	1	6.409492	39.654740	92.172699
 591	1	9.081565	42.312337	92.907314
 592	1	10.019315	39.130198	90.974164
 593	1	4.956109	43.915037	92.080975
 594	1	3.549655	41.766473	94.935447
 595	1	7.159477	41.241932	93.736912
 596	1	6.221727	44.424070	95.670062
 597	1	5.471742	42.836878	94.105849
 598	1	4.065288	40.688314	96.960321
 599	1	6.737360	43.345911	97.694936
 600	1	7.675110	40.163773	95.761786
 601	1	2.611904	44.948612	96.868597
 602	1	1.205450	42.800048	99.723069
 603	1	4.815272	42.275506	98.524534
 604	1	3.877522	45.457645	100.457685
 605	1	3.127537	43.870453	98.893471
 606	1	1.721083	41.721889	101.747943
 607	1	4.393155	44.379486	102.482559
 608	1	5.330905	41.197347	100.549408
 609	1	2.143200	39.617910	97.789919
 610	1	0.736746	37.469346	100.644391
 611	1	4.346569	36.944804	99.445856
 612	1	3.408818	40.126943	101.379006
 613	1	2.658833	38.539751	99.814793
 614	1	1.252379	36.391187	102.669265
 615	1	3.924451	39.048784	103.403880
 616	1	4.862201	35.866645	101.470730
 617	1	1.674496	34.287208	98.711241
 618	1	0.268042	32.138644	101.565712
 619	1	3.877865	31.614103	100.367177
 620	1	2.940114	34.796241	102.300328
 621	1	2.190129	33.209049	100.736115
 622	1	0.783675	31.060485	103.590586
 623	1	3.455747	33.718082	104.325202
 624	1	4.393498	30.535944	102.392051
 625	1	1.205792	28.956506	99.632562
 626	1	3.409161	26.283401	101.288499
 627	1	2.471410	29.465539	103.221649
 628	1	1.721425	27.878347	101.657436
 629	1	0.314971	25.729783	104.511908
 630	1	2.987043	28.387380	105.246523
 631	1	3.924794	25.205242	103.313373
 632	1	0.737088	23.625804	100.553884
 633	1	2.940457	20.952699	102.209820
 634	1	2.002706	24.134837	104.142971
 635	1	1.252721	22.547645	102.578758
 636	1	2.518339	23.056678	106.167845
 637	1	3.456090	19.874540	104.234694
 638	1	0.268385	18.295102	101.475205
 639	1	2.471753	15.621997	103.131142
 640	1	1.534002	18.804135	105.064292
 641	1	0.784018	17.216943	103.500079
 642	1	2.049635	17.725976	107.089166
 643	1	2.987386	14.543838	105.156016
 644	1	2.003049	10.291295	104.052463
 645	1	1.065298	13.473433	105.985614
 646	1	0.315314	11.886241	104.421401
 647	1	2.518682	9.213136	106.077337
 648	1	25.585934	1.595081	49.732681
 649	1	26.851552	2.104114	53.321768
 650	1	26.101567	0.516922	51.757555
 651	1	27.367185	1.025955	55.346642
 652	1	26.054638	6.925783	48.811360
 653	1	24.648184	4.777219	51.665832
 654	1	28.258006	4.252677	50.467297
 655	1	27.320256	7.434816	52.400447
 656	1	26.570271	5.847624	50.836234
 657	1	25.163817	3.699060	53.690706
 658	1	27.835889	6.356657	54.425321
 659	1	28.773639	3.174518	52.492171
 660	1	26.523342	12.256485	47.890038
 661	1	25.116888	10.107921	50.744510
 662	1	28.726710	9.583379	49.545975
 663	1	27.788960	12.765518	51.479125
 664	1	27.038975	11.178326	49.914912
 665	1	25.632521	9.029762	52.769384
 666	1	28.304593	11.687359	53.503999
 667	1	29.242343	8.505220	51.570849
 668	1	26.992046	17.587186	46.968717
 669	1	25.585592	15.438623	49.823189
 670	1	29.195414	14.914081	48.624654
 671	1	28.257664	18.096219	50.557804
 672	1	27.507679	16.509027	48.993591
 673	1	26.101224	14.360464	51.848063
 674	1	28.773297	17.018060	52.582678
 675	1	29.711047	13.835922	50.649527
 676	1	27.460750	22.917888	46.047395
 677	1	26.054295	20.769325	48.901867
 678	1	29.664118	20.244783	47.703332
 679	1	28.726368	23.426921	49.636482
 680	1	27.976383	21.839729	48.072269
 681	1	26.569928	19.691166	50.926741
 682	1	29.242001	22.348762	51.661356
 683	1	30.179751	19.166624	49.728206
 684	1	26.522999	26.100027	47.980546
 685	1	28.445087	27.170431	47.150948
 686	1	27.038632	25.021868	50.005420
 687	1	29.710705	27.679464	50.740035
 688	1	30.648455	24.497326	48.806884
 689	1	26.991703	31.430729	47.059224
 690	1	27.507336	30.352570	49.084098
 691	1	25.116202	37.795005	50.925525
 692	1	25.631835	36.716846	52.950399
 693	1	24.178452	40.977143	52.858675
 694	1	22.771997	38.828579	55.713147
 695	1	26.381820	38.304038	54.514612
 696	1	25.444070	41.486176	56.447762
 697	1	24.694085	39.898984	54.883549
 698	1	23.287630	37.750421	57.738021
 699	1	25.959703	40.408017	58.472636
 700	1	26.897453	37.225879	56.539486
 701	1	21.834247	42.010718	57.646297
 702	1	20.427793	39.862154	60.500769
 703	1	24.037615	39.337613	59.302234
 704	1	23.099865	42.519751	61.235385
 705	1	22.349880	40.932559	59.671171
 706	1	20.943426	38.783995	62.525643
 707	1	23.615498	41.441592	63.260259
 708	1	24.553248	38.259454	61.327108
 709	1	19.490042	43.044292	62.433920
 710	1	18.083588	40.895728	65.288392
 711	1	21.693410	40.371187	64.089857
 712	1	20.755660	43.553325	66.023007
 713	1	20.005675	41.966133	64.458794
 714	1	18.599221	39.817569	67.313266
 715	1	21.271293	42.475166	68.047881
 716	1	22.209043	39.293028	66.114731
 717	1	17.145837	44.077867	67.221542
 718	1	15.739383	41.929303	70.076014
 719	1	19.349206	41.404761	68.877479
 720	1	18.411455	44.586900	70.810629
 721	1	17.661470	42.999708	69.246416
 722	1	16.255016	40.851144	72.100888
 723	1	18.927088	43.508741	72.835503
 724	1	19.864838	40.326602	70.902353
 725	1	14.801632	45.111441	72.009164
 726	1	13.395178	42.962877	74.863636
 727	1	17.005001	42.438336	73.665101
 728	1	16.067250	45.620474	75.598252
 729	1	15.317265	44.033282	74.034038
 730	1	13.910811	41.884718	76.888510
 731	1	16.582883	44.542315	77.623126
 732	1	17.520634	41.360177	75.689975
 733	1	12.457427	46.145016	76.796787
 734	1	11.050973	43.996452	79.651259
 735	1	14.660796	43.471910	78.452724
 736	1	13.723045	46.654049	80.385874
 737	1	12.973060	45.066857	78.821661
 738	1	11.566606	42.918293	81.676133
 739	1	14.238678	45.575890	82.410748
 740	1	15.176429	42.393751	80.477598
 741	1	10.113223	47.178590	81.584409
 742	1	8.706768	45.030026	84.438881
 743	1	12.316591	44.505485	83.240346
 744	1	11.378840	47.687623	85.173496
 745	1	10.628856	46.100431	83.609283
 746	1	9.222401	43.951867	86.463755
 747	1	11.894473	46.609464	87.198370
 748	1	12.832224	43.427326	85.265220
 749	1	7.769018	48.212165	86.372031
 750	1	6.362563	46.063601	89.226503
 751	1	9.972386	45.539059	88.027968
 752	1	9.034636	48.721198	89.961119
 753	1	8.284651	47.134006	88.396905
 754	1	6.878196	44.985442	91.251377
 755	1	9.550269	47.643039	91.985992
 756	1	10.488019	44.460900	90.052842
 757	1	5.424813	49.245739	91.159654
 758	1	4.018359	47.097175	94.014126
 759	1	7.628181	46.572634	92.815590
 760	1	6.690431	49.754772	94.748741
 761	1	5.940446	48.167580	93.184528
 762	1	4.533991	46.019016	96.039000
 763	1	7.206064	48.676613	96.773615
 764	1	8.143814	45.494475	94.840464
 765	1	5.283976	47.606208	97.603213
 766	1	3.596241	49.201155	97.972150
 767	1	2.189787	47.052591	100.826622
 768	1	5.799609	46.528049	99.628087
 769	1	2.471068	43.309081	103.312157
 770	1	2.986700	42.230922	105.337031
 771	1	2.002364	37.978379	104.233478
 772	1	1.064613	41.160517	106.166628
 773	1	0.314628	39.573325	104.602415
 774	1	1.580246	40.082358	108.191502
 775	1	2.517997	36.900220	106.258352
 776	1	1.533660	32.647677	105.154800
 777	1	0.595909	35.829815	107.087950
 778	1	2.049293	31.569518	107.179674
 779	1	1.064956	27.316975	106.076121
 780	1	0.127205	30.499113	108.009272
 781	1	1.580589	26.238816	108.100995
 782	1	0.596252	21.986273	106.997443
 783	1	0.127548	16.655571	107.918764
 784	1	27.930139	0.561506	44.945059
 785	1	29.195757	1.070539	48.534146
 786	1	28.398843	5.892208	44.023737
 787	1	26.992389	3.743644	46.878209
 788	1	30.602211	3.219103	45.679674
 789	1	29.664461	6.401241	47.612825
 790	1	28.914476	4.814049	46.048611
 791	1	27.508022	2.665485	48.903083
 792	1	30.180094	5.323082	49.637699
 793	1	31.117844	2.140944	47.704548
 794	1	28.867547	11.222910	43.102416
 795	1	27.461092	9.074346	45.956888
 796	1	31.070915	8.549805	44.758353
 797	1	30.133165	11.731943	46.691503
 798	1	29.383180	10.144751	45.127290
 799	1	27.976725	7.996187	47.981762
 800	1	30.648798	10.653784	48.716377
 801	1	31.586548	7.471646	46.783227
 802	1	29.336251	16.553612	42.181094
 803	1	27.929796	14.405048	45.035566
 804	1	31.539619	13.880507	43.837031
 805	1	30.601869	17.062645	45.770182
 806	1	29.851884	15.475453	44.205968
 807	1	28.445429	13.326889	47.060440
 808	1	31.117502	15.984486	47.795056
 809	1	32.055252	12.802348	45.861905
 810	1	28.398500	19.735750	44.114245
 811	1	28.914133	18.657591	46.139119
 812	1	23.240701	44.159281	54.791826
 813	1	23.756334	43.081122	56.816700
 814	1	22.302951	47.341420	56.724976
 815	1	20.896496	45.192856	59.579448
 816	1	24.506319	44.668314	58.380913
 817	1	23.568569	47.850453	60.314063